[Molden Format]
made by pyscf v[2.3.0]
[Atoms] (AU)
C   1   6    -1.26067598194597     0.00000000000000     5.66917837369519
C   2   6     1.26067598194597     0.00000000000000     5.66917837369519
H   3   1    -2.34181286424926     1.74789650973808     5.66917837369519
H   4   1    -2.34181286424926    -1.74789650973808     5.66917837369519
H   5   1     2.34181286424926    -1.74789650973808     5.66917837369519
H   6   1     2.34181286424926     1.74789650973808     5.66917837369519
C   7   6    -1.26067598194597     0.00000000000000     0.00000000000000
C   8   6     1.26067598194597     0.00000000000000     0.00000000000000
H   9   1    -2.34181286424926     1.74789650973808     0.00000000000000
H   10   1    -2.34181286424926    -1.74789650973808     0.00000000000000
H   11   1     2.34181286424926    -1.74789650973808     0.00000000000000
H   12   1     2.34181286424926     1.74789650973808     0.00000000000000
[GTO]
1 0
 s    3 1.00
               172.256   0.061766907377115
               25.9109    0.35879404285247
               5.53335    0.70071308368949
 s    2 1.00
               3.66498   -0.39589516211925
              0.770545     1.2158343556811
 s    1 1.00
              0.195857                   1
 p    2 1.00
               3.66498    0.23645994661946
              0.770545    0.86061880571636
 p    1 1.00
              0.195857                   1

2 0
 s    3 1.00
               172.256   0.061766907377115
               25.9109    0.35879404285247
               5.53335    0.70071308368949
 s    2 1.00
               3.66498   -0.39589516211925
              0.770545     1.2158343556811
 s    1 1.00
              0.195857                   1
 p    2 1.00
               3.66498    0.23645994661946
              0.770545    0.86061880571636
 p    1 1.00
              0.195857                   1

3 0
 s    2 1.00
              5.447178     0.1562849806701
              0.824547    0.90469088810453
 s    1 1.00
              0.183192                   1

4 0
 s    2 1.00
              5.447178     0.1562849806701
              0.824547    0.90469088810453
 s    1 1.00
              0.183192                   1

5 0
 s    2 1.00
              5.447178     0.1562849806701
              0.824547    0.90469088810453
 s    1 1.00
              0.183192                   1

6 0
 s    2 1.00
              5.447178     0.1562849806701
              0.824547    0.90469088810453
 s    1 1.00
              0.183192                   1

7 0
 s    3 1.00
               172.256   0.061766907377115
               25.9109    0.35879404285247
               5.53335    0.70071308368949
 s    2 1.00
               3.66498   -0.39589516211925
              0.770545     1.2158343556811
 s    1 1.00
              0.195857                   1
 p    2 1.00
               3.66498    0.23645994661946
              0.770545    0.86061880571636
 p    1 1.00
              0.195857                   1

8 0
 s    3 1.00
               172.256   0.061766907377115
               25.9109    0.35879404285247
               5.53335    0.70071308368949
 s    2 1.00
               3.66498   -0.39589516211925
              0.770545     1.2158343556811
 s    1 1.00
              0.195857                   1
 p    2 1.00
               3.66498    0.23645994661946
              0.770545    0.86061880571636
 p    1 1.00
              0.195857                   1

9 0
 s    2 1.00
              5.447178     0.1562849806701
              0.824547    0.90469088810453
 s    1 1.00
              0.183192                   1

10 0
 s    2 1.00
              5.447178     0.1562849806701
              0.824547    0.90469088810453
 s    1 1.00
              0.183192                   1

11 0
 s    2 1.00
              5.447178     0.1562849806701
              0.824547    0.90469088810453
 s    1 1.00
              0.183192                   1

12 0
 s    2 1.00
              5.447178     0.1562849806701
              0.824547    0.90469088810453
 s    1 1.00
              0.183192                   1

[5d]
[7f]
[9g]

[MO]
 Sym= B1u
 Ene=    -0.308119441
 Spin= Alpha
 Occup=    1.00000
   1    0.0070756512453686
   2     -0.01362651200725
   3    -0.017959412857773
   4    -0.00077126353790071
   5                     0
   6      0.25841736443915
   7    0.0058361262451744
   8                     0
   9      0.26728189503822
  10    0.0070756512453686
  11     -0.01362651200725
  12    -0.017959412857773
  13    0.00077126353790071
  14                     0
  15      0.25841736443915
  16    -0.0058361262451744
  17                     0
  18      0.26728189503822
  19    -0.0098890192470332
  20    0.0025468368450885
  21    -0.0098890192470332
  22    0.0025468368450885
  23    -0.0098890192470332
  24    0.0025468368450885
  25    -0.0098890192470332
  26    0.0025468368450885
  27    -0.0070756512453686
  28      0.01362651200725
  29     0.017959412857773
  30    0.00077126353790071
  31                     0
  32      0.25841736443915
  33    -0.0058361262451744
  34                     0
  35      0.26728189503822
  36    -0.0070756512453686
  37      0.01362651200725
  38     0.017959412857773
  39    -0.00077126353790071
  40                     0
  41      0.25841736443915
  42    0.0058361262451744
  43                     0
  44      0.26728189503822
  45    0.0098890192470332
  46    -0.0025468368450885
  47    0.0098890192470332
  48    -0.0025468368450885
  49    0.0098890192470332
  50    -0.0025468368450885
  51    0.0098890192470332
  52    -0.0025468368450885
 Sym= B3u
 Ene=   0.07387118626
 Spin= Alpha
 Occup=    1.00000
   1    -0.0057419427289183
   2     0.006092349070451
   3     0.051371380613626
   4    -0.010253203893078
   5                     0
   6      0.23433365386968
   7    0.0072963580316736
   8                     0
   9       0.4628538038228
  10    0.0057419427289183
  11    -0.006092349070451
  12    -0.051371380613626
  13    -0.010253203893078
  14                     0
  15     -0.23433365386968
  16    0.0072963580316736
  17                     0
  18      -0.4628538038228
  19     0.010074908637008
  20    -0.014598505649932
  21     0.010074908637008
  22    -0.014598505649932
  23    -0.010074908637008
  24     0.014598505649932
  25    -0.010074908637008
  26     0.014598505649932
  27    -0.0057419427289183
  28     0.006092349070451
  29     0.051371380613626
  30    -0.010253203893078
  31                     0
  32     -0.23433365386968
  33    0.0072963580316736
  34                     0
  35      -0.4628538038228
  36    0.0057419427289183
  37    -0.006092349070451
  38    -0.051371380613626
  39    -0.010253203893078
  40                     0
  41      0.23433365386968
  42    0.0072963580316736
  43                     0
  44       0.4628538038228
  45     0.010074908637008
  46    -0.014598505649932
  47     0.010074908637008
  48    -0.014598505649932
  49    -0.010074908637008
  50     0.014598505649932
  51    -0.010074908637008
  52     0.014598505649932
